# vtk DataFile Version 5.1
vtk output
ASCII
DATASET UNSTRUCTURED_GRID
FIELD FieldData 2
TIME 1 1 float
3.1536e+07 
METADATA
INFORMATION 0

CYCLE 1 1 int
366 
METADATA
INFORMATION 0

POINTS 9 float
0 0 0 25 0 0 50 0 0 
0 25 0 25 25 0 50 25 0 
0 50 0 25 50 0 50 50 0 

METADATA
INFORMATION 2
NAME L2_NORM_RANGE LOCATION vtkDataArray
DATA 2 0 70.7107 
NAME L2_NORM_FINITE_RANGE LOCATION vtkDataArray
DATA 2 0 70.7107 

CELLS 9 24
OFFSETS vtktypeint64
0 3 6 9 12 15 18 21 24 

CONNECTIVITY vtktypeint64
0 1 4 0 4 3 1 2 5 
1 5 4 3 4 7 3 7 6 
4 5 8 4 8 7 
CELL_TYPES 8
5
5
5
5
5
5
5
5

CELL_DATA 8
SCALARS pressure float
LOOKUP_TABLE default
6.90056e+06 6.90045e+06 6.90097e+06 6.90073e+06 6.90028e+06 6.90006e+06 6.90056e+06 6.90045e+06 
METADATA
INFORMATION 0

FIELD FieldData 5
c_0 1 8 float
23.3681 0.93711 2677.75 431.5 0.0582516 0.00303224 23.3681 0.93711 
METADATA
INFORMATION 0

c_1 1 8 float
11653.9 11675.9 8502.15 11245 11676.7 11676.8 11653.9 11675.9 
METADATA
INFORMATION 0

x_0 1 8 float
0.00200117 8.02539e-05 0.239515 0.0369546 4.98867e-06 2.59681e-07 0.00200117 8.02539e-05 
METADATA
INFORMATION 0

x_1 1 8 float
0.997999 0.99992 0.760485 0.963045 0.999995 1 0.997999 0.99992 
METADATA
INFORMATION 0

nbOfPhases 1 8 float
1 1 1 1 1 1 1 1 
METADATA
INFORMATION 0

