<?xml version="1.0" encoding="UTF-8"?>

<!-- generated on 2026-01-04T18:25:46.902978+01:00 by Eclipse SUMO libsumo 1.25.0
<libsumoConfiguration xmlns:xsi="http://www.w3.org/2001/XMLSchema-instance" xsi:noNamespaceSchemaLocation="http://sumo.dlr.de/xsd/libsumoConfiguration.xsd">

    <input>
        <net-file value="/home/julesbompard/Documents/Projets/sumo-experiments/src/sumo_experiments/preset_networks/bologna/acosta/acosta_buslanes.net.xml"/>
        <route-files value="/home/julesbompard/Documents/Projets/sumo-experiments/src/sumo_experiments/preset_networks/bologna/acosta/acosta_41694.rou.xml,/home/julesbompard/Documents/Projets/sumo-experiments/src/sumo_experiments/preset_networks/bologna/acosta/acosta_busses.rou.xml"/>
        <additional-files value="/home/julesbompard/Documents/Projets/sumo-experiments/src/sumo_experiments/preset_networks/bologna/acosta/acosta_tls.add.xml,/home/julesbompard/Documents/Projets/sumo-experiments/src/sumo_experiments/preset_networks/bologna/acosta/acosta_vtypes.add.xml,/home/julesbompard/Documents/Projets/sumo-experiments/src/sumo_experiments/preset_networks/bologna/acosta/acosta_detectors.add.xml,/home/julesbompard/Documents/Projets/sumo-experiments/src/sumo_experiments/preset_networks/bologna/acosta/acosta_bus_stops.add.xml"/>
    </input>

    <output>
        <tripinfo-output value="/home/julesbompard/Documents/Projets/sumo-experiments/src/sumo_experiments/preset_networks/bologna/acosta/tripinfos.xml"/>
    </output>

    <processing>
        <threads value="8"/>
        <time-to-teleport value="500"/>
    </processing>

    <report>
        <no-warnings value="true"/>
        <log value="/home/julesbompard/Documents/Projets/sumo-experiments/src/sumo_experiments/preset_networks/bologna/acosta/sumo_log.txt"/>
        <no-step-log value="true"/>
    </report>

    <random_number>
        <seed value="42"/>
    </random_number>

    <gui_only>
        <gui-settings-file value="/home/julesbompard/Documents/Projets/sumo-experiments/src/sumo_experiments/preset_networks/bologna/acosta/settings.gui.xml"/>
    </gui_only>

</libsumoConfiguration>
-->

<detector xmlns:xsi="http://www.w3.org/2001/XMLSchema-instance" xsi:noNamespaceSchemaLocation="http://sumo.dlr.de/xsd/det_e2_file.xsd">
   <interval begin="0.00" end="3600.00" id="34_1" sampledSeconds="9975.42" nVehEntered="405" nVehLeft="401" nVehSeen="405" meanSpeed="1.00" meanTimeLoss="22.68" meanOccupancy="56.08" maxOccupancy="82.38" meanMaxJamLengthInVehicles="2.29" meanMaxJamLengthInMeters="11.53" maxJamLengthInVehicles="4" maxJamLengthInMeters="20.00" jamLengthInVehiclesSum="8244" jamLengthInMetersSum="41501.50" meanHaltingDuration="40.63" maxHaltingDuration="165.00" haltingDurationSum="8452.00" meanIntervalHaltingDuration="40.63" maxIntervalHaltingDuration="165.00" intervalHaltingDurationSum="8452.00" startedHalts="208.00" meanVehicleNumber="2.88" maxVehicleNumber="4" />
   <interval begin="0.00" end="3600.00" id="34_2" sampledSeconds="7565.61" nVehEntered="360" nVehLeft="360" nVehSeen="360" meanSpeed="1.18" meanTimeLoss="18.70" meanOccupancy="41.80" maxOccupancy="82.68" meanMaxJamLengthInVehicles="1.57" meanMaxJamLengthInMeters="7.80" maxJamLengthInVehicles="4" maxJamLengthInMeters="20.00" jamLengthInVehiclesSum="5640" jamLengthInMetersSum="28085.86" meanHaltingDuration="33.79" maxHaltingDuration="98.00" haltingDurationSum="5812.00" meanIntervalHaltingDuration="33.79" maxIntervalHaltingDuration="98.00" intervalHaltingDurationSum="5812.00" startedHalts="172.00" meanVehicleNumber="2.20" maxVehicleNumber="4" />
   <interval begin="0.00" end="3600.00" id="34_3" sampledSeconds="4408.31" nVehEntered="460" nVehLeft="460" nVehSeen="460" meanSpeed="2.36" meanTimeLoss="7.87" meanOccupancy="26.18" maxOccupancy="79.38" meanMaxJamLengthInVehicles="0.84" meanMaxJamLengthInMeters="4.34" maxJamLengthInVehicles="4" maxJamLengthInMeters="19.38" jamLengthInVehiclesSum="3014" jamLengthInMetersSum="15622.78" meanHaltingDuration="24.92" maxHaltingDuration="140.00" haltingDurationSum="2941.00" meanIntervalHaltingDuration="24.92" maxIntervalHaltingDuration="140.00" intervalHaltingDurationSum="2941.00" startedHalts="145.00" meanVehicleNumber="1.35" maxVehicleNumber="4" />
   <interval begin="0.00" end="3600.00" id="34_4" sampledSeconds="3322.63" nVehEntered="440" nVehLeft="440" nVehSeen="440" meanSpeed="2.91" meanTimeLoss="5.97" meanOccupancy="19.98" maxOccupancy="79.38" meanMaxJamLengthInVehicles="0.59" meanMaxJamLengthInMeters="3.13" maxJamLengthInVehicles="4" maxJamLengthInMeters="19.72" jamLengthInVehiclesSum="2118" jamLengthInMetersSum="11255.09" meanHaltingDuration="22.07" maxHaltingDuration="66.00" haltingDurationSum="2207.00" meanIntervalHaltingDuration="22.07" maxIntervalHaltingDuration="66.00" intervalHaltingDurationSum="2207.00" startedHalts="110.00" meanVehicleNumber="1.03" maxVehicleNumber="4" />
   <interval begin="0.00" end="3600.00" id="34_5" sampledSeconds="2316.77" nVehEntered="196" nVehLeft="196" nVehSeen="196" meanSpeed="1.99" meanTimeLoss="10.17" meanOccupancy="14.30" maxOccupancy="75.00" meanMaxJamLengthInVehicles="0.45" meanMaxJamLengthInMeters="2.49" maxJamLengthInVehicles="4" maxJamLengthInMeters="19.38" jamLengthInVehiclesSum="1637" jamLengthInMetersSum="8971.16" meanHaltingDuration="21.72" maxHaltingDuration="64.00" haltingDurationSum="1716.00" meanIntervalHaltingDuration="21.72" maxIntervalHaltingDuration="64.00" intervalHaltingDurationSum="1716.00" startedHalts="79.00" meanVehicleNumber="0.69" maxVehicleNumber="4" />
   <interval begin="0.00" end="3600.00" id="34_6" sampledSeconds="3548.76" nVehEntered="360" nVehLeft="360" nVehSeen="360" meanSpeed="2.52" meanTimeLoss="8.06" meanOccupancy="19.28" maxOccupancy="79.98" meanMaxJamLengthInVehicles="0.61" meanMaxJamLengthInMeters="3.01" maxJamLengthInVehicles="5" maxJamLengthInMeters="20.00" jamLengthInVehiclesSum="2201" jamLengthInMetersSum="10821.83" meanHaltingDuration="27.46" maxHaltingDuration="67.00" haltingDurationSum="2142.00" meanIntervalHaltingDuration="27.46" maxIntervalHaltingDuration="67.00" intervalHaltingDurationSum="2142.00" startedHalts="91.00" meanVehicleNumber="1.09" maxVehicleNumber="5" />
   <interval begin="0.00" end="3600.00" id="34_7" sampledSeconds="1309.43" nVehEntered="598" nVehLeft="598" nVehSeen="598" meanSpeed="11.17" meanTimeLoss="0.39" meanOccupancy="7.07" maxOccupancy="54.34" meanMaxJamLengthInVehicles="0.00" meanMaxJamLengthInMeters="0.00" maxJamLengthInVehicles="2" maxJamLengthInMeters="7.18" jamLengthInVehiclesSum="5" jamLengthInMetersSum="14.02" meanHaltingDuration="1.67" maxHaltingDuration="2.00" haltingDurationSum="5.00" meanIntervalHaltingDuration="1.67" maxIntervalHaltingDuration="2.00" intervalHaltingDurationSum="5.00" startedHalts="5.00" meanVehicleNumber="0.52" maxVehicleNumber="3" />
   <interval begin="0.00" end="3600.00" id="34_8" sampledSeconds="757.85" nVehEntered="424" nVehLeft="424" nVehSeen="424" meanSpeed="12.69" meanTimeLoss="0.17" meanOccupancy="4.06" maxOccupancy="37.42" meanMaxJamLengthInVehicles="0.00" meanMaxJamLengthInMeters="0.00" maxJamLengthInVehicles="0" maxJamLengthInMeters="0.00" jamLengthInVehiclesSum="0" jamLengthInMetersSum="0.00" meanHaltingDuration="0.00" maxHaltingDuration="0.00" haltingDurationSum="0.00" meanIntervalHaltingDuration="0.00" maxIntervalHaltingDuration="0.00" intervalHaltingDurationSum="0.00" startedHalts="0.00" meanVehicleNumber="0.32" maxVehicleNumber="2" />
   <interval begin="0.00" end="3600.00" id="34_9" sampledSeconds="31.77" nVehEntered="46" nVehLeft="46" nVehSeen="46" meanSpeed="13.03" meanTimeLoss="0.08" meanOccupancy="0.05" maxOccupancy="25.00" meanMaxJamLengthInVehicles="0.00" meanMaxJamLengthInMeters="0.00" maxJamLengthInVehicles="0" maxJamLengthInMeters="0.00" jamLengthInVehiclesSum="0" jamLengthInMetersSum="0.00" meanHaltingDuration="0.00" maxHaltingDuration="0.00" haltingDurationSum="0.00" meanIntervalHaltingDuration="0.00" maxIntervalHaltingDuration="0.00" intervalHaltingDurationSum="0.00" startedHalts="0.00" meanVehicleNumber="0.02" maxVehicleNumber="1" />
   <interval begin="0.00" end="3600.00" id="34_10" sampledSeconds="9974.35" nVehEntered="405" nVehLeft="401" nVehSeen="405" meanSpeed="1.00" meanTimeLoss="22.68" meanOccupancy="56.12" maxOccupancy="82.46" meanMaxJamLengthInVehicles="2.29" meanMaxJamLengthInMeters="11.53" maxJamLengthInVehicles="4" maxJamLengthInMeters="19.98" jamLengthInVehiclesSum="8244" jamLengthInMetersSum="41499.86" meanHaltingDuration="40.63" maxHaltingDuration="165.00" haltingDurationSum="8452.00" meanIntervalHaltingDuration="40.63" maxIntervalHaltingDuration="165.00" intervalHaltingDurationSum="8452.00" startedHalts="208.00" meanVehicleNumber="2.88" maxVehicleNumber="4" />
   <interval begin="0.00" end="3600.00" id="34_11" sampledSeconds="36336.44" nVehEntered="433" nVehLeft="406" nVehSeen="433" meanSpeed="2.14" meanTimeLoss="70.99" meanOccupancy="26.66" maxOccupancy="77.76" meanMaxJamLengthInVehicles="7.40" meanMaxJamLengthInMeters="45.39" maxJamLengthInVehicles="30" maxJamLengthInMeters="180.00" jamLengthInVehiclesSum="27458" jamLengthInMetersSum="168241.53" meanHaltingDuration="47.62" maxHaltingDuration="331.00" haltingDurationSum="28000.00" meanIntervalHaltingDuration="47.62" maxIntervalHaltingDuration="331.00" intervalHaltingDurationSum="28000.00" startedHalts="608.00" meanVehicleNumber="10.21" maxVehicleNumber="30" />
   <interval begin="0.00" end="3600.00" id="34_12" sampledSeconds="29690.51" nVehEntered="360" nVehLeft="360" nVehSeen="360" meanSpeed="1.61" meanTimeLoss="72.39" meanOccupancy="30.65" maxOccupancy="78.81" meanMaxJamLengthInVehicles="5.82" meanMaxJamLengthInMeters="35.36" maxJamLengthInVehicles="22" maxJamLengthInMeters="127.54" jamLengthInVehiclesSum="20984" jamLengthInMetersSum="127515.37" meanHaltingDuration="32.84" maxHaltingDuration="98.00" haltingDurationSum="21643.00" meanIntervalHaltingDuration="32.84" maxIntervalHaltingDuration="98.00" intervalHaltingDurationSum="21643.00" startedHalts="659.00" meanVehicleNumber="8.35" maxVehicleNumber="22" />
   <interval begin="0.00" end="3600.00" id="34_13" sampledSeconds="8178.94" nVehEntered="608" nVehLeft="608" nVehSeen="608" meanSpeed="5.31" meanTimeLoss="8.16" meanOccupancy="13.53" maxOccupancy="67.40" meanMaxJamLengthInVehicles="1.03" meanMaxJamLengthInMeters="5.87" maxJamLengthInVehicles="9" maxJamLengthInMeters="57.13" jamLengthInVehiclesSum="3702" jamLengthInMetersSum="21180.91" meanHaltingDuration="23.56" maxHaltingDuration="140.00" haltingDurationSum="3557.00" meanIntervalHaltingDuration="23.56" maxIntervalHaltingDuration="140.00" intervalHaltingDurationSum="3557.00" startedHalts="196.00" meanVehicleNumber="2.40" maxVehicleNumber="11" />
   <interval begin="0.00" end="3600.00" id="34_14" sampledSeconds="5731.13" nVehEntered="600" nVehLeft="600" nVehSeen="600" meanSpeed="5.63" meanTimeLoss="5.70" meanOccupancy="9.37" maxOccupancy="49.76" meanMaxJamLengthInVehicles="0.73" meanMaxJamLengthInMeters="4.20" maxJamLengthInVehicles="8" maxJamLengthInMeters="50.02" jamLengthInVehiclesSum="2627" jamLengthInMetersSum="15107.19" meanHaltingDuration="23.51" maxHaltingDuration="66.00" haltingDurationSum="2727.00" meanIntervalHaltingDuration="23.51" maxIntervalHaltingDuration="66.00" intervalHaltingDurationSum="2727.00" startedHalts="131.00" meanVehicleNumber="1.70" maxVehicleNumber="8" />
   <interval begin="0.00" end="3600.00" id="34_15" sampledSeconds="3038.57" nVehEntered="196" nVehLeft="196" nVehSeen="196" meanSpeed="2.60" meanTimeLoss="12.70" meanOccupancy="4.87" maxOccupancy="48.50" meanMaxJamLengthInVehicles="0.57" meanMaxJamLengthInMeters="3.30" maxJamLengthInVehicles="8" maxJamLengthInMeters="48.61" jamLengthInVehiclesSum="2056" jamLengthInMetersSum="11872.42" meanHaltingDuration="23.84" maxHaltingDuration="64.00" haltingDurationSum="2146.00" meanIntervalHaltingDuration="23.84" maxIntervalHaltingDuration="64.00" intervalHaltingDurationSum="2146.00" startedHalts="90.00" meanVehicleNumber="0.87" maxVehicleNumber="8" />
   <interval begin="0.00" end="3600.00" id="34_16" sampledSeconds="25666.04" nVehEntered="435" nVehLeft="415" nVehSeen="435" meanSpeed="2.19" meanTimeLoss="49.68" meanOccupancy="26.73" maxOccupancy="78.80" meanMaxJamLengthInVehicles="5.30" meanMaxJamLengthInMeters="32.63" maxJamLengthInVehicles="21" maxJamLengthInMeters="127.54" jamLengthInVehiclesSum="19391" jamLengthInMetersSum="119253.14" meanHaltingDuration="57.20" maxHaltingDuration="164.00" haltingDurationSum="19736.00" meanIntervalHaltingDuration="57.20" maxIntervalHaltingDuration="164.00" intervalHaltingDurationSum="19736.00" startedHalts="346.00" meanVehicleNumber="7.25" maxVehicleNumber="21" />
   <interval begin="0.00" end="3600.00" id="34_17" sampledSeconds="11629.61" nVehEntered="813" nVehLeft="809" nVehSeen="813" meanSpeed="11.92" meanTimeLoss="1.59" meanOccupancy="7.63" maxOccupancy="24.75" meanMaxJamLengthInVehicles="0.01" meanMaxJamLengthInMeters="0.07" maxJamLengthInVehicles="1" maxJamLengthInMeters="12.00" jamLengthInVehiclesSum="21" jamLengthInMetersSum="252.00" meanHaltingDuration="22.00" maxHaltingDuration="22.00" haltingDurationSum="22.00" meanIntervalHaltingDuration="22.00" maxIntervalHaltingDuration="22.00" intervalHaltingDurationSum="22.00" startedHalts="1.00" meanVehicleNumber="3.42" maxVehicleNumber="11" />
   <interval begin="0.00" end="3600.00" id="34_18" sampledSeconds="6484.71" nVehEntered="577" nVehLeft="577" nVehSeen="577" meanSpeed="13.02" meanTimeLoss="0.86" meanOccupancy="4.21" maxOccupancy="21.50" meanMaxJamLengthInVehicles="0.00" meanMaxJamLengthInMeters="0.00" maxJamLengthInVehicles="0" maxJamLengthInMeters="0.00" jamLengthInVehiclesSum="0" jamLengthInMetersSum="0.00" meanHaltingDuration="0.00" maxHaltingDuration="0.00" haltingDurationSum="0.00" meanIntervalHaltingDuration="0.00" maxIntervalHaltingDuration="0.00" intervalHaltingDurationSum="0.00" startedHalts="0.00" meanVehicleNumber="1.92" maxVehicleNumber="9" />
   <interval begin="0.00" end="3600.00" id="34_19" sampledSeconds="3578.72" nVehEntered="264" nVehLeft="264" nVehSeen="264" meanSpeed="13.09" meanTimeLoss="1.23" meanOccupancy="2.33" maxOccupancy="21.75" meanMaxJamLengthInVehicles="0.00" meanMaxJamLengthInMeters="0.00" maxJamLengthInVehicles="0" maxJamLengthInMeters="0.00" jamLengthInVehiclesSum="0" jamLengthInMetersSum="0.00" meanHaltingDuration="0.00" maxHaltingDuration="0.00" haltingDurationSum="0.00" meanIntervalHaltingDuration="0.00" maxIntervalHaltingDuration="0.00" intervalHaltingDurationSum="0.00" startedHalts="0.00" meanVehicleNumber="1.06" maxVehicleNumber="9" />
   <interval begin="0.00" end="3600.00" id="27_1" sampledSeconds="8889.67" nVehEntered="854" nVehLeft="852" nVehSeen="854" meanSpeed="2.34" meanTimeLoss="8.23" meanOccupancy="49.28" maxOccupancy="85.00" meanMaxJamLengthInVehicles="1.38" meanMaxJamLengthInMeters="6.86" maxJamLengthInVehicles="4" maxJamLengthInMeters="19.52" jamLengthInVehiclesSum="4960" jamLengthInMetersSum="24695.17" meanHaltingDuration="24.17" maxHaltingDuration="64.00" haltingDurationSum="5173.00" meanIntervalHaltingDuration="24.17" maxIntervalHaltingDuration="64.00" intervalHaltingDurationSum="5173.00" startedHalts="215.00" meanVehicleNumber="2.71" maxVehicleNumber="4" />
   <interval begin="0.00" end="3600.00" id="27_2" sampledSeconds="7111.72" nVehEntered="950" nVehLeft="949" nVehSeen="950" meanSpeed="3.12" meanTimeLoss="5.78" meanOccupancy="39.83" maxOccupancy="80.08" meanMaxJamLengthInVehicles="1.21" meanMaxJamLengthInMeters="6.06" maxJamLengthInVehicles="4" maxJamLengthInMeters="20.00" jamLengthInVehiclesSum="4345" jamLengthInMetersSum="21816.66" meanHaltingDuration="21.83" maxHaltingDuration="60.00" haltingDurationSum="4519.00" meanIntervalHaltingDuration="21.83" maxIntervalHaltingDuration="60.00" intervalHaltingDurationSum="4519.00" startedHalts="226.00" meanVehicleNumber="2.23" maxVehicleNumber="4" />
   <interval begin="0.00" end="3600.00" id="27_3" sampledSeconds="5748.54" nVehEntered="606" nVehLeft="605" nVehSeen="606" meanSpeed="2.56" meanTimeLoss="7.77" meanOccupancy="32.19" maxOccupancy="80.08" meanMaxJamLengthInVehicles="1.03" meanMaxJamLengthInMeters="5.16" maxJamLengthInVehicles="4" maxJamLengthInMeters="20.00" jamLengthInVehiclesSum="3702" jamLengthInMetersSum="18582.40" meanHaltingDuration="19.97" maxHaltingDuration="59.00" haltingDurationSum="3895.00" meanIntervalHaltingDuration="19.97" maxIntervalHaltingDuration="59.00" intervalHaltingDurationSum="3895.00" startedHalts="196.00" meanVehicleNumber="1.75" maxVehicleNumber="4" />
   <interval begin="0.00" end="3600.00" id="27_4" sampledSeconds="0.00" nVehEntered="0" nVehLeft="0" nVehSeen="0" meanSpeed="-1.00" meanTimeLoss="-1.00" meanOccupancy="0.00" maxOccupancy="0.00" meanMaxJamLengthInVehicles="0.00" meanMaxJamLengthInMeters="0.00" maxJamLengthInVehicles="0" maxJamLengthInMeters="0.00" jamLengthInVehiclesSum="0" jamLengthInMetersSum="0.00" meanHaltingDuration="0.00" maxHaltingDuration="0.00" haltingDurationSum="0.00" meanIntervalHaltingDuration="0.00" maxIntervalHaltingDuration="0.00" intervalHaltingDurationSum="0.00" startedHalts="0.00" meanVehicleNumber="0.00" maxVehicleNumber="0" />
   <interval begin="0.00" end="3600.00" id="27_5" sampledSeconds="959.14" nVehEntered="23" nVehLeft="22" nVehSeen="23" meanSpeed="0.52" meanTimeLoss="40.13" meanOccupancy="25.80" maxOccupancy="100.00" meanMaxJamLengthInVehicles="0.24" meanMaxJamLengthInMeters="2.49" maxJamLengthInVehicles="1" maxJamLengthInMeters="10.38" jamLengthInVehiclesSum="863" jamLengthInMetersSum="8956.30" meanHaltingDuration="58.53" maxHaltingDuration="119.00" haltingDurationSum="878.00" meanIntervalHaltingDuration="58.53" maxIntervalHaltingDuration="119.00" intervalHaltingDurationSum="878.00" startedHalts="15.00" meanVehicleNumber="0.27" maxVehicleNumber="1" />
   <interval begin="0.00" end="3600.00" id="27_6" sampledSeconds="0.00" nVehEntered="0" nVehLeft="0" nVehSeen="0" meanSpeed="-1.00" meanTimeLoss="-1.00" meanOccupancy="0.00" maxOccupancy="0.00" meanMaxJamLengthInVehicles="0.00" meanMaxJamLengthInMeters="0.00" maxJamLengthInVehicles="0" maxJamLengthInMeters="0.00" jamLengthInVehiclesSum="0" jamLengthInMetersSum="0.00" meanHaltingDuration="0.00" maxHaltingDuration="0.00" haltingDurationSum="0.00" meanIntervalHaltingDuration="0.00" maxIntervalHaltingDuration="0.00" intervalHaltingDurationSum="0.00" startedHalts="0.00" meanVehicleNumber="0.00" maxVehicleNumber="0" />
   <interval begin="0.00" end="3600.00" id="27_7" sampledSeconds="3504.26" nVehEntered="427" nVehLeft="427" nVehSeen="427" meanSpeed="2.96" meanTimeLoss="6.41" meanOccupancy="20.69" maxOccupancy="75.48" meanMaxJamLengthInVehicles="0.60" meanMaxJamLengthInMeters="3.11" maxJamLengthInVehicles="4" maxJamLengthInMeters="19.10" jamLengthInVehiclesSum="2148" jamLengthInMetersSum="11209.38" meanHaltingDuration="20.18" maxHaltingDuration="68.00" haltingDurationSum="2260.00" meanIntervalHaltingDuration="20.18" maxIntervalHaltingDuration="68.00" intervalHaltingDurationSum="2260.00" startedHalts="113.00" meanVehicleNumber="1.09" maxVehicleNumber="4" />
   <interval begin="0.00" end="3600.00" id="27_8" sampledSeconds="3405.83" nVehEntered="403" nVehLeft="403" nVehSeen="403" meanSpeed="2.89" meanTimeLoss="6.71" meanOccupancy="19.21" maxOccupancy="75.48" meanMaxJamLengthInVehicles="0.58" meanMaxJamLengthInMeters="2.89" maxJamLengthInVehicles="4" maxJamLengthInMeters="19.10" jamLengthInVehiclesSum="2078" jamLengthInMetersSum="10416.39" meanHaltingDuration="19.55" maxHaltingDuration="67.00" haltingDurationSum="2190.00" meanIntervalHaltingDuration="19.55" maxIntervalHaltingDuration="67.00" intervalHaltingDurationSum="2190.00" startedHalts="113.00" meanVehicleNumber="1.06" maxVehicleNumber="4" />
   <interval begin="0.00" end="3600.00" id="27_9" sampledSeconds="2217.61" nVehEntered="41" nVehLeft="41" nVehSeen="41" meanSpeed="0.42" meanTimeLoss="52.40" meanOccupancy="13.65" maxOccupancy="75.48" meanMaxJamLengthInVehicles="0.56" meanMaxJamLengthInMeters="2.90" maxJamLengthInVehicles="4" maxJamLengthInMeters="19.10" jamLengthInVehiclesSum="2012" jamLengthInMetersSum="10434.76" meanHaltingDuration="59.85" maxHaltingDuration="143.00" haltingDurationSum="2035.00" meanIntervalHaltingDuration="59.85" maxIntervalHaltingDuration="143.00" intervalHaltingDurationSum="2035.00" startedHalts="38.00" meanVehicleNumber="0.63" maxVehicleNumber="4" />
   <interval begin="0.00" end="3600.00" id="27_10" sampledSeconds="6619.10" nVehEntered="178" nVehLeft="175" nVehSeen="178" meanSpeed="0.66" meanTimeLoss="35.11" meanOccupancy="38.02" maxOccupancy="77.49" meanMaxJamLengthInVehicles="1.61" meanMaxJamLengthInMeters="8.19" maxJamLengthInVehicles="4" maxJamLengthInMeters="20.01" jamLengthInVehiclesSum="5812" jamLengthInMetersSum="29467.69" meanHaltingDuration="62.18" maxHaltingDuration="131.00" haltingDurationSum="5907.00" meanIntervalHaltingDuration="62.18" maxIntervalHaltingDuration="131.00" intervalHaltingDurationSum="5907.00" startedHalts="95.00" meanVehicleNumber="1.89" maxVehicleNumber="4" />
   <interval begin="0.00" end="3600.00" id="27_11" sampledSeconds="1368.38" nVehEntered="34" nVehLeft="34" nVehSeen="34" meanSpeed="0.67" meanTimeLoss="38.32" meanOccupancy="11.31" maxOccupancy="84.96" meanMaxJamLengthInVehicles="0.33" meanMaxJamLengthInMeters="2.22" maxJamLengthInVehicles="4" maxJamLengthInMeters="19.01" jamLengthInVehiclesSum="1184" jamLengthInMetersSum="7989.02" meanHaltingDuration="46.54" maxHaltingDuration="121.00" haltingDurationSum="1210.00" meanIntervalHaltingDuration="46.54" maxIntervalHaltingDuration="121.00" intervalHaltingDurationSum="1210.00" startedHalts="26.00" meanVehicleNumber="0.39" maxVehicleNumber="4" />
   <interval begin="0.00" end="3600.00" id="27_12" sampledSeconds="10321.18" nVehEntered="210" nVehLeft="207" nVehSeen="210" meanSpeed="0.50" meanTimeLoss="47.21" meanOccupancy="58.80" maxOccupancy="77.49" meanMaxJamLengthInVehicles="2.53" meanMaxJamLengthInMeters="12.91" maxJamLengthInVehicles="4" maxJamLengthInMeters="20.01" jamLengthInVehiclesSum="9094" jamLengthInMetersSum="46488.19" meanHaltingDuration="50.35" maxHaltingDuration="135.00" haltingDurationSum="9265.00" meanIntervalHaltingDuration="50.35" maxIntervalHaltingDuration="135.00" intervalHaltingDurationSum="9265.00" startedHalts="190.00" meanVehicleNumber="2.92" maxVehicleNumber="4" />
   <interval begin="0.00" end="3600.00" id="27_13" sampledSeconds="4929.93" nVehEntered="1068" nVehLeft="1067" nVehSeen="1068" meanSpeed="5.17" meanTimeLoss="2.83" meanOccupancy="27.12" maxOccupancy="79.98" meanMaxJamLengthInVehicles="0.44" meanMaxJamLengthInMeters="2.14" maxJamLengthInVehicles="4" maxJamLengthInMeters="20.00" jamLengthInVehiclesSum="1595" jamLengthInMetersSum="7710.45" meanHaltingDuration="12.52" maxHaltingDuration="42.00" haltingDurationSum="1502.00" meanIntervalHaltingDuration="12.52" maxIntervalHaltingDuration="42.00" intervalHaltingDurationSum="1502.00" startedHalts="156.00" meanVehicleNumber="1.65" maxVehicleNumber="4" />
   <interval begin="0.00" end="3600.00" id="27_14" sampledSeconds="3019.75" nVehEntered="1352" nVehLeft="1351" nVehSeen="1352" meanSpeed="9.82" meanTimeLoss="0.66" meanOccupancy="16.89" maxOccupancy="77.21" meanMaxJamLengthInVehicles="0.10" meanMaxJamLengthInMeters="0.51" maxJamLengthInVehicles="3" maxJamLengthInMeters="18.04" jamLengthInVehiclesSum="373" jamLengthInMetersSum="1844.83" meanHaltingDuration="11.52" maxHaltingDuration="28.00" haltingDurationSum="380.00" meanIntervalHaltingDuration="11.52" maxIntervalHaltingDuration="28.00" intervalHaltingDurationSum="380.00" startedHalts="42.00" meanVehicleNumber="1.16" maxVehicleNumber="4" />
   <interval begin="0.00" end="3600.00" id="27_15" sampledSeconds="685.96" nVehEntered="257" nVehLeft="257" nVehSeen="257" meanSpeed="4.10" meanTimeLoss="1.91" meanOccupancy="2.95" maxOccupancy="69.96" meanMaxJamLengthInVehicles="0.09" meanMaxJamLengthInMeters="0.43" maxJamLengthInVehicles="3" maxJamLengthInMeters="16.60" jamLengthInVehiclesSum="339" jamLengthInMetersSum="1537.59" meanHaltingDuration="11.42" maxHaltingDuration="25.00" haltingDurationSum="297.00" meanIntervalHaltingDuration="11.42" maxIntervalHaltingDuration="25.00" intervalHaltingDurationSum="297.00" startedHalts="30.00" meanVehicleNumber="0.23" maxVehicleNumber="3" />
   <interval begin="0.00" end="3600.00" id="27_16" sampledSeconds="783.68" nVehEntered="338" nVehLeft="338" nVehSeen="338" meanSpeed="10.48" meanTimeLoss="0.51" meanOccupancy="4.20" maxOccupancy="60.00" meanMaxJamLengthInVehicles="0.00" meanMaxJamLengthInMeters="0.00" maxJamLengthInVehicles="0" maxJamLengthInMeters="0.00" jamLengthInVehiclesSum="0" jamLengthInMetersSum="0.00" meanHaltingDuration="0.00" maxHaltingDuration="0.00" haltingDurationSum="0.00" meanIntervalHaltingDuration="0.00" maxIntervalHaltingDuration="0.00" intervalHaltingDurationSum="0.00" startedHalts="1.00" meanVehicleNumber="0.32" maxVehicleNumber="3" />
   <interval begin="0.00" end="3600.00" id="27_17" sampledSeconds="715.25" nVehEntered="314" nVehLeft="314" nVehSeen="314" meanSpeed="10.30" meanTimeLoss="0.60" meanOccupancy="3.79" maxOccupancy="51.12" meanMaxJamLengthInVehicles="0.00" meanMaxJamLengthInMeters="0.01" maxJamLengthInVehicles="1" maxJamLengthInMeters="5.00" jamLengthInVehiclesSum="9" jamLengthInMetersSum="38.00" meanHaltingDuration="5.00" maxHaltingDuration="5.00" haltingDurationSum="10.00" meanIntervalHaltingDuration="5.00" maxIntervalHaltingDuration="5.00" intervalHaltingDurationSum="10.00" startedHalts="3.00" meanVehicleNumber="0.28" maxVehicleNumber="3" />
   <interval begin="0.00" end="3600.00" id="27_18" sampledSeconds="498.60" nVehEntered="236" nVehLeft="236" nVehSeen="236" meanSpeed="11.27" meanTimeLoss="0.40" meanOccupancy="2.70" maxOccupancy="50.27" meanMaxJamLengthInVehicles="0.00" meanMaxJamLengthInMeters="0.00" maxJamLengthInVehicles="0" maxJamLengthInMeters="0.00" jamLengthInVehiclesSum="0" jamLengthInMetersSum="0.00" meanHaltingDuration="1.00" maxHaltingDuration="1.00" haltingDurationSum="1.00" meanIntervalHaltingDuration="1.00" maxIntervalHaltingDuration="1.00" intervalHaltingDurationSum="1.00" startedHalts="1.00" meanVehicleNumber="0.20" maxVehicleNumber="3" />
   <interval begin="0.00" end="3600.00" id="27_19" sampledSeconds="2895.59" nVehEntered="443" nVehLeft="439" nVehSeen="443" meanSpeed="3.81" meanTimeLoss="4.72" meanOccupancy="15.48" maxOccupancy="79.98" meanMaxJamLengthInVehicles="0.45" meanMaxJamLengthInMeters="2.13" maxJamLengthInVehicles="5" maxJamLengthInMeters="20.00" jamLengthInVehiclesSum="1605" jamLengthInMetersSum="7677.41" meanHaltingDuration="38.37" maxHaltingDuration="112.00" haltingDurationSum="1573.00" meanIntervalHaltingDuration="38.37" maxIntervalHaltingDuration="112.00" intervalHaltingDurationSum="1573.00" startedHalts="44.00" meanVehicleNumber="0.93" maxVehicleNumber="5" />
   <interval begin="0.00" end="3600.00" id="27_20" sampledSeconds="23227.21" nVehEntered="1073" nVehLeft="1067" nVehSeen="1073" meanSpeed="3.34" meanTimeLoss="15.98" meanOccupancy="38.58" maxOccupancy="78.60" meanMaxJamLengthInVehicles="3.01" meanMaxJamLengthInMeters="18.27" maxJamLengthInVehicles="13" maxJamLengthInMeters="79.52" jamLengthInVehiclesSum="10828" jamLengthInMetersSum="65795.93" meanHaltingDuration="19.32" maxHaltingDuration="64.00" haltingDurationSum="11263.00" meanIntervalHaltingDuration="19.32" maxIntervalHaltingDuration="64.00" intervalHaltingDurationSum="11263.00" startedHalts="628.00" meanVehicleNumber="6.71" maxVehicleNumber="13" />
   <interval begin="0.00" end="3600.00" id="27_21" sampledSeconds="16371.19" nVehEntered="1502" nVehLeft="1498" nVehSeen="1502" meanSpeed="5.32" meanTimeLoss="6.70" meanOccupancy="27.02" maxOccupancy="77.97" meanMaxJamLengthInVehicles="1.94" meanMaxJamLengthInMeters="11.41" maxJamLengthInVehicles="13" maxJamLengthInMeters="77.51" jamLengthInVehiclesSum="6968" jamLengthInMetersSum="41058.90" meanHaltingDuration="17.28" maxHaltingDuration="60.00" haltingDurationSum="7308.00" meanIntervalHaltingDuration="17.28" maxIntervalHaltingDuration="60.00" intervalHaltingDurationSum="7308.00" startedHalts="474.00" meanVehicleNumber="4.84" maxVehicleNumber="13" />
   <interval begin="0.00" end="3600.00" id="27_22" sampledSeconds="10177.56" nVehEntered="606" nVehLeft="605" nVehSeen="606" meanSpeed="3.12" meanTimeLoss="13.11" meanOccupancy="16.29" maxOccupancy="73.80" meanMaxJamLengthInVehicles="1.63" meanMaxJamLengthInMeters="9.55" maxJamLengthInVehicles="12" maxJamLengthInMeters="73.51" jamLengthInVehiclesSum="5861" jamLengthInMetersSum="34389.31" meanHaltingDuration="16.88" maxHaltingDuration="59.00" haltingDurationSum="6228.00" meanIntervalHaltingDuration="16.88" maxIntervalHaltingDuration="59.00" intervalHaltingDurationSum="6228.00" startedHalts="370.00" meanVehicleNumber="2.91" maxVehicleNumber="13" />
   <interval begin="0.00" end="3600.00" id="27_23" sampledSeconds="0.00" nVehEntered="0" nVehLeft="0" nVehSeen="0" meanSpeed="-1.00" meanTimeLoss="-1.00" meanOccupancy="0.00" maxOccupancy="0.00" meanMaxJamLengthInVehicles="0.00" meanMaxJamLengthInMeters="0.00" maxJamLengthInVehicles="0" maxJamLengthInMeters="0.00" jamLengthInVehiclesSum="0" jamLengthInMetersSum="0.00" meanHaltingDuration="0.00" maxHaltingDuration="0.00" haltingDurationSum="0.00" meanIntervalHaltingDuration="0.00" maxIntervalHaltingDuration="0.00" intervalHaltingDurationSum="0.00" startedHalts="0.00" meanVehicleNumber="0.00" maxVehicleNumber="0" />